-76.376447621901
-76.369670077342
-76.377519017350
-76.372594065189
-76.376294488399
-76.379232593241
-76.377747562552
-76.373455952512
-76.373804108422
-76.375866598937
-76.373156185957
-76.378691289239
-76.380049076187
-76.379940254229
-76.376220454003
-76.380174191374
-76.377993146775
-76.379274282989
-76.376140996637
-76.372557293057
-76.376930844444
-76.377442484124
-76.375296859563
-76.370059761663
-76.373540442830
-76.380059905525
-76.373322563583
-76.376715210118
-76.378330057756
-76.364591659852
-76.376900273178
-76.379312417562
-76.375345515325
-76.375366796108
-76.379733526329
-76.380136608176
-76.377750799704
-76.379165207614
-76.378070854917
-76.372075256411
-76.378593952996
-76.371220813392
-76.379232079360
-76.368064760034
-76.376263982620
-76.379396473825
-76.378228453435
-76.376629091915
-76.377236906161
-76.368805243435
-76.377188159684
-76.375327193257
-76.372024444827
-76.372759845998
-76.377800623446
-76.374514369568
-76.369342211633
-76.378515308128
-76.379023007484
-76.377096845854
-76.374684245183
-76.380111819356
-76.376774118160
-76.366875615590
-76.379284205878
-76.380356645835
-76.379705859302
-76.374883987420
-76.377136875661
-76.377895383893
-76.378282384561
-76.379282439703
-76.379497291315
-76.379580264191
-76.380332220951
-76.374527229938
-76.373447201147
-76.380195076087
-76.372379502269
-76.377281394646
-76.376365411878
-76.376922538931
-76.379871511740
-76.373094326206
-76.377969099371
-76.376874388497
-76.370297095612
-76.378510779580
-76.375431303940
-76.380051331147
-76.375126425394
-76.379188318132
-76.375500474548
-76.377742686890
-76.367896949476
-76.378828849220
-76.377289676995
-76.371638188791
-76.378121199371
-76.366191463221
-76.374896750401
-76.376488588159
-76.377833021764
-76.370524330087
-76.372865063300
-76.377946784093
-76.378336263751
-76.375942334156
-76.376634977710
-76.376730712427
-76.373236006435
-76.378844444557
-76.371661447215
-76.379599688587
-76.374788276665
-76.378735676844
-76.380068681999
-76.374578978981
-76.371273593591
-76.377204930225
-76.375483853107
-76.377220699875
-76.379801184989
-76.379179961092
-76.379855683754
-76.370930180086
-76.364683668528
-76.379579397294
-76.380602995565
-76.374304354147
-76.379001465613
-76.378948094986
-76.377626680724
-76.379552023933
-76.370164567046
-76.373438304233
-76.378340140147
-76.379827642956
-76.378269578768
-76.379337227188
-76.380259175924
-76.378267250568
-76.368109666894
-76.380359989715
-76.378715974405
-76.374660294903
-76.375027580074
-76.365772673690
-76.380203900827
-76.379997370233
-76.380426571878
-76.380080077882
-76.365087661465
-76.373707306512
-76.375896014519
-76.379718570758
-76.380047377493
-76.374090202187
-76.379318011492
-76.374847717885
-76.371054625635
-76.374814632165
-76.378067824725
-76.376411126417
-76.372484413968
-76.380017118095
-76.376990945528
-76.380125440006
-76.378856219367
-76.375498944334
-76.377094930680
-76.378508294886
-76.378180202945
-76.376718484530
-76.367917100577
-76.379851209499
-76.379391430196
-76.379928741870
-76.375232004739
-76.379597021693
-76.379630429369
-76.379550073673
-76.379791101015
-76.378655405109
-76.371589739551
-76.379796451197
-76.365013388671
-76.367059249293
-76.379887850426
-76.377940731743
-76.379590465981
-76.376019331393
-76.378024457859
-76.376106318099
-76.375701946261
-76.380602187241
-76.377277070551
-76.377305499094
-76.377848701636
-76.380723980287
-76.377538983880
-76.378277105258
-76.380377577762
-76.379966237819
-76.373432930817
-76.377231372221
-76.377643051293
-76.377563514112
-76.371813758785
-76.378724692783
-76.379112502389
-76.371498110137
-76.378923910050
-76.365612183536
-76.375745884263
-76.376205967363
-76.375114736337
-76.377428326593
-76.379515374783
-76.380071170429
-76.378278689235
-76.379171071157
-76.372700584118
-76.373674245881
-76.379303156214
-76.373065806189
-76.379145654242
-76.375731213454
-76.378963207142
-76.379637299599
-76.379435518391
-76.372207962752
-76.375901335902
-76.369819373868
-76.374864424832
-76.372736262658
-76.376815021521
-76.379890820830
-76.377151877856
-76.373417912063
-76.380617081901
-76.378350747415
-76.378591740099
-76.376671045538
-76.375459013712
-76.373742941000
-76.378118513102
-76.379103559998
-76.374524716632
-76.379334507556
-76.380160196780
-76.376546565500
-76.379695717532
-76.377658565358
-76.367717412524
-76.379649866557
-76.369794689008
-76.379810097076
-76.379989605706
-76.377772061904
-76.379471584503
-76.380492521922
-76.377940789421
-76.378940493751
-76.379913873174
-76.376132675734
-76.379116482743
-76.370555687753
-76.376583798203
-76.379524376534
-76.374524333179
-76.370686225970
-76.375850195225
-76.376525859159
-76.377467780433
-76.377900987848
-76.378573605289
-76.372110412069
-76.379133185836
-76.378182754493
-76.379420641966
-76.376793899683
-76.380389599137
-76.380023879990
-76.375809731561
-76.380203318714
-76.366346344135
-76.368744201492
-76.377240498362
-76.378108375951
-76.374987079554
-76.376566416122
-76.380692285357
-76.379978481379
-76.377327345638
-76.379656692502
-76.370819184667
-76.375830157063
-76.371455196195
-76.376503616960
-76.376395192110
-76.378713585671
-76.379708388278
-76.379337504363
-76.378234909876
-76.366411652688
-76.378002901625
-76.375582648651
-76.374751251558
-76.374625733097
-76.376568069602
-76.374845213855
-76.377487547844
-76.371203137229
-76.371874136828
-76.378311235121
-76.367821962000
-76.377538111489
-76.371778429066
-76.377699997721
-76.377053132265
-76.379078595869
-76.375428272348
-76.374719001101
-76.372531560008
-76.373462579007
-76.373822350561
-76.378827556831
-76.374847891527
-76.366724047638
-76.377277840472
-76.379190238708
-76.373718038635
-76.379878815071
-76.374922043148
-76.372890927182
-76.374270982233
-76.379365066142
-76.377181913085
-76.372320728705
-76.376152290972
-76.379857119999
-76.375611635583
-76.379191730609
-76.377791726519
-76.377747520315
-76.374718288989
-76.379086934328
-76.370511446906
-76.377708442775
-76.377012044945
-76.376300887730
-76.364966967460
-76.375114230221
-76.378675590464
-76.380494786748
-76.367750462236
-76.375888415475
-76.380145854160
-76.370358861723
-76.378678086167
-76.374822983476
-76.374318832941
-76.378271364465
-76.369162370327
-76.378584999876
-76.362969965351
-76.367693035193
-76.379274999068
-76.378896423404
-76.377160750695
-76.379255063029
-76.380013131821
-76.354093496072
-76.378723954282
-76.376654077531
-76.375231156392
-76.376928538089
-76.378981468495
-76.380540491361
-76.380265725007
-76.375289162888
-76.379062649287
-76.376137370775
-76.370089663358
-76.376456185801
-76.379581027276
-76.377958907317
-76.357062173762
-76.380711112570
-76.378160891332
-76.380190151573
-76.377364116948
-76.379258645929
-76.378543138872
-76.380122579302
-76.374102578497
-76.375706825582
-76.378823837448
-76.378704652505
-76.379387510023
-76.377617432134
-76.372806840505
-76.376896554593
-76.379020265060
-76.376249914969
-76.379733799391
-76.378808555393
-76.377407710958
-76.378457705947
-76.370239962702
-76.375074850771
-76.371567766771
-76.378597812803
-76.376606407223
-76.379978644813
-76.378275133685
-76.376890874169
-76.377901661105
-76.378181528333
-76.373043609104
-76.379009431917
-76.380557714598
-76.379981548844
-76.379444226935
-76.365975482874
-76.379998539726
-76.378768230827
-76.377650993447
-76.380200835847
-76.377930767671
-76.377340437637
-76.363359884243
-76.378592681239
-76.372304434273
-76.377764247663
-76.375018457045
-76.374401117352
-76.375700680022
-76.367299602593
-76.379715255887
-76.380013765062
-76.379274043273
-76.376026047066
-76.377612914630
-76.371374831682
-76.370276081355
-76.378997365895
-76.368169718377
-76.377246004907
-76.372592364422
-76.377775650803
-76.377316616804
-76.370216248657
-76.370813035746
-76.362990785094
-76.375902728073
-76.377711916709
-76.367399137933
-76.379143189034
-76.375854023628
-76.377443424219
-76.377919462697
-76.375800779252
-76.380545775050
-76.378501043314
-76.379446012492
-76.379571424443
-76.376633596220
-76.378449307407
-76.377829559966
-76.375748067504
-76.378110625350
-76.377015105901
-76.379494415580
-76.373267964259
-76.378044995510
-76.379740505429
-76.378684905491
-76.377851507636
-76.379540042545
-76.376278660550
-76.379876670989
-76.366497357063
-76.377968023568
-76.379360916715
-76.377183445195
-76.379099107248
-76.375325298141
-76.380070083376
-76.376976001337
-76.374285531929
-76.377322593977
-76.379170805493
-76.377188220309
-76.378865668269
-76.378188111128
-76.379202918789
-76.375046710864
-76.368834314116
-76.378278669277
-76.378955965120
-76.371857219024
-76.374321366294
-76.379393946497
-76.379951408292
-76.380122747921
-76.378460666805
-76.379436179460
-76.379475796468
-76.379508051367
-76.378082786083
-76.373803903613
-76.380001024267
-76.378613065144
-76.377598418000
-76.377814844988
-76.379239398996
-76.376056551857
-76.378295200626
-76.369788219098
-76.378880796441
-76.376548569159
-76.378285495106
-76.379037344829
-76.377271867951
-76.380348143274
-76.378522664344
-76.378144249762
-76.376278066579
-76.378035975538
-76.379771399676
-76.377378188163
-76.378452327622
-76.378144036834
-76.379081123525
-76.379602289508
-76.373710964039
-76.369291316884
-76.374489077256
-76.379541667233
-76.380294878339
-76.379551313274
-76.374320070819
-76.376007852363
-76.378634153265
-76.380162469908
-76.379682703153
-76.378571039060
-76.378933280537
-76.373143251006
-76.376663744850
-76.378156406381
-76.375922515502
-76.376547798259
-76.378016363438
-76.371125628457
-76.379219502257
-76.377959950647
-76.379520729032
-76.380176154531
-76.378358464366
-76.380212740527
-76.377922827991
-76.370126045110
-76.378310269888
-76.372679223750
-76.365193957485
-76.379530225294
-76.380244593025
-76.377978618794
-76.368546710367
-76.378346430651
-76.380145953277
-76.378733314906
-76.377227033787
-76.377926743436
-76.377977034567
-76.380502518249
-76.375312372924
-76.376744260394
-76.372105117175
-76.379593935781
-76.378544583765
-76.378318783429
-76.378125183655
-76.380312672663
-76.378053091744
-76.374657307356
-76.377486565566
-76.378920231324
-76.376491937843
-76.379848988881
-76.378061947549
-76.378006871841
-76.375692504798
-76.378927711766
-76.377685951206
-76.370423429799
-76.377897910945
-76.372628382653
-76.378474486822
-76.377116359046
-76.379319951513
-76.377893705454
-76.380187511409
-76.379476648381
-76.371466345168
-76.379875733879
-76.377531049204
-76.372585375758
-76.379421394604
-76.377104009281
-76.377149279951
-76.379461602353
-76.380053640420
-76.370563330062
-76.376181558433
-76.379129806154
-76.372851038208
-76.369046030248
-76.370650214919
-76.374692781327
-76.375803434685
-76.377327675415
-76.380020465790
-76.379719346437
-76.370409381693
-76.380314219547
-76.379545537294
-76.378457619078
-76.372315908155
-76.372175424452
-76.379353863690
-76.372106677999
-76.379882460761
-76.379578554032
-76.374586240189
-76.378741997680
-76.377037820183
-76.380173127915
-76.370849826851
-76.375024586347
-76.376805239493
-76.375494117263
-76.374153723479
-76.377875677885
-76.376378482384
-76.379408281375
-76.378766817842
-76.380105451954
-76.371166326189
-76.371888078881
-76.373089993986
-76.380168446927
-76.379928841847
-76.376412908146
-76.378179790450
-76.375232063734
-76.379842675369
-76.379736154041
-76.379479287662
-76.366577222401
-76.378959770217
-76.376330231503
-76.361987577667
-76.378347660726
-76.380244335190
-76.379642700112
-76.371192461315
-76.380063701677
-76.379126161461
-76.376778868830
-76.375248182136
-76.374699683532
-76.376208006154
-76.378351739653
-76.380233095470
-76.374832794432
-76.374490680346
-76.380068079023
-76.376210227454
-76.378867030712
-76.377616019089
-76.374473338207
-76.380285043174
-76.375112958891
-76.369920587144
-76.373340718101
-76.373234861610
-76.380530511321
-76.378810439583
-76.378045138321
-76.379999531700
-76.377426198102
-76.380086086260
-76.375475314339
-76.379364596165
-76.372676522020
-76.380018729824
-76.377779679338
-76.380278083809
-76.377168588878
-76.376532843935
-76.377776058695
-76.367386071042
-76.379118630485
-76.375820665214
-76.377967739328
-76.378124968959
-76.378354157270
-76.375990007842
-76.375058933778
-76.380317130008
-76.378059527100
-76.377920144145
-76.378879726150
-76.378369530712
-76.379540019779
-76.379776602565
-76.379760310895
-76.378113711495
-76.379217504278
-76.378665302185
-76.374632392385
-76.378361439246
-76.376806498570
-76.378129657258
-76.362381658619
-76.379465637028
-76.376822051461
-76.377546308896
-76.377177524071
-76.379064982515
-76.378297111057
-76.377072391947
-76.375513394214
-76.379008294106
-76.374339145773
-76.367005531019
-76.372839005809
-76.374744040304
-76.365935785608
-76.359655826931
-76.377234684044
-76.379619878404
-76.380597824039
-76.379231697062
-76.373540665402
-76.366337406814
-76.379373056707
-76.377655303193
-76.378036943239
-76.379765391951
-76.380752119895
-76.380599033546
-76.369732254378
-76.376901387439
-76.369083139061
-76.380149038935
-76.377055718547
-76.370939882311
-76.374604502997
-76.378672081564
-76.376475558590
-76.377533524569
-76.380437219676
-76.374053579603
-76.378334752042
-76.377727398162
-76.372908915496
-76.378163486652
-76.375644907025
-76.377042020649
-76.376867107926
-76.378255266255
-76.379616020029
-76.377382965709
-76.376190892109
-76.378870111038
-76.379288498563
-76.375290359868
-76.377638419646
-76.374287663812
-76.380484652762
-76.378308032086
-76.372617656791
-76.365006454154
-76.373134300244
-76.376551441178
-76.379511247387
-76.379745251074
-76.369041557858
-76.379524624820
-76.378053149417
-76.379123294106
-76.375341481166
-76.378807383437
-76.372621002980
-76.374183552370
-76.373580795618
-76.374911936906
-76.378249215027
-76.379790408684
-76.368191920337
-76.378164745826
-76.379328775973
-76.370820452895
-76.377369967705
-76.375724821529
-76.380599441775
-76.376654792353
-76.379904654299
-76.368329909695
-76.375732098557
-76.375011724208
-76.378359597974
-76.373979382221
-76.376315555779
-76.379617752495
-76.374902284083
-76.377799544155
-76.378299425786
-76.377746782970
-76.376187726756
-76.379825272921
-76.380012264749
-76.380729451376
-76.375465212242
-76.379267392302
-76.378274410736
-76.375905860647
-76.379344233846
-76.377068771041
-76.378062213055
-76.375008212651
-76.377198335682
-76.378700196651
-76.374975876123
-76.379524613940
-76.379553897225
-76.375535049258
-76.373943718344
-76.378491595021
-76.378875460898
-76.374051416890
-76.376943130401
-76.380179675759
-76.376856792727
-76.372632112496
-76.373641166915
-76.376949601103
-76.378202350679
-76.380198301617
-76.380346338094
-76.375870195572
-76.379461004270
-76.375951855733
-76.376051279813
-76.379376478492
-76.379490868295
-76.380356787902
-76.380092153767
-76.369970213546
-76.377504785570
-76.379518365128
-76.373500670097
-76.378313000591
-76.378914837243
-76.376683447783
-76.378606186093
-76.370533557473
-76.377459895987
-76.379866425066
-76.379522560203
-76.379237064539
-76.379688466164
-76.378599218252
-76.377097716551
-76.378818149241
-76.371490372346
-76.368993668677
-76.378172366491
-76.380433078836
-76.377813156409
-76.375514455231
-76.373741674927
-76.374480786295
-76.378105348753
-76.379618886196
-76.378122348661
-76.376757074221
-76.373202826060
-76.377220915791
-76.376566884672
-76.378615482164
-76.378043358949
-76.368931054457
-76.376102149769
-76.379597242208
-76.371616322045
-76.379891172434
-76.379031829688
-76.377646913359
-76.373187013982
-76.376582734110
-76.377200118816
-76.379833909863
-76.378759464218
-76.378348255098
-76.380047358113
-76.376007955995
-76.380699192097
-76.379623103871
-76.377333806003
-76.378873568740
-76.375142722765
-76.375324351811
-76.377878240843
-76.380016593312
-76.376452192543
-76.369986205514
-76.376942957441
-76.377245991436
-76.364591280950
-76.378179227209
-76.371551330819
-76.377905465726
-76.380271806071
-76.378137354617
-76.380021620222
-76.376901938972
-76.374823674756
-76.379083536764
-76.378361816104
-76.379984340367
-76.380638780165
-76.379532922224
-76.371203120692
-76.379929339501
-76.374155858215
-76.374314059779
-76.378618766515
-76.378971236930
-76.376625313887
-76.379698110726
-76.377654320582
-76.380353839521
-76.378976685105
-76.376204370172
-76.368678129462
-76.379284017139
-76.379777346259
-76.375247044162
-76.374252119332
-76.364823655627
-76.379841069880
-76.376039924105
-76.379727926760
-76.380586051030
-76.378204764840
-76.377408961943
-76.379775101253
-76.380102471659
-76.373296559197
-76.376790663780
-76.379025954330
-76.374652776599
-76.370602551510
-76.379991293836
-76.380161436360
-76.365794361932
-76.372009979722
-76.379201967623
-76.374914532852
-76.377508605261
-76.378568909189
-76.379154354546
-76.377678713832
-76.379887084399
-76.369623478087
-76.377825982264
-76.379032583863
-76.370800357188
-76.380054855912
-76.365442838462
-76.376834865172
-76.378366436568
-76.379794976434
-76.378537405092
-76.379043082732
-76.378520374400
-76.378305396963
-76.370500469232
-76.380145856796
-76.371515477494
-76.371604353559
-76.370722266563
-76.368808591403
-76.374206540393
-76.378515172168
-76.379150769424
-76.379821886892
-76.370079055626
-76.376865170117
-76.370856354588
-76.379161916904
-76.380152297960
-76.374772231475
-76.378331843554
-76.379363092964
-76.377751747998
-76.378807297610
-76.366643298034
-76.372638961651
-76.378540277743
-76.374214395843
-76.375392574442
-76.379295370327
-76.372080416548
-76.378998398556
-76.380002237330
-76.372510757291
-76.374781415968
-76.366429237593
-76.374688464027
-76.379052061770
-76.377714082959
-76.379515215946
-76.376237563689
-76.376620277598
-76.374045042884
-76.378964519555
-76.373298943753
-76.378400327433
-76.378965625833
-76.375713862138
-76.374324428221
-76.379029748388
-76.377297741635
-76.360766212614
-76.379057171947
-76.370902021771
-76.370165796982
-76.376913312918
-76.380121048671
-76.378884383303
-76.373696876760
-76.372098660533
-76.380018225157
-76.376674965115
-76.372583994668
-76.377869018992
-76.377766526190
-76.376933932046
-76.379879639374
-76.377389296732
-76.379586498349
-76.378274322436
-76.368390606524
-76.379289377216
-76.376217345515
-76.379873758706
-76.373965568625
-76.376754009543
-76.380443442667
-76.375260478668
-76.380255953651
-76.371584976055
-76.379181295160
-76.378880579076
-76.378149865778
-76.379065953649
-76.380516102151
-76.375653232421
-76.380482111909
-76.379263476550
-76.375946731777
-76.372461627299
-76.379881418325
-76.379180884843
-76.378926275593
-76.375107336809
-76.377151767627
-76.375255946357
-76.379916375618
-76.379466493956
-76.377241483356
-76.376871649607
-76.378481831291
-76.374100416911
-76.374566723876
-76.376510929482
-76.378738730645
-76.378478039849
-76.369027424647
-76.378134847855
-76.371675289459
-76.375112338656
-76.374068148296
-76.378749680111
-76.380264881782
-76.378533156882
-76.377037347558
-76.380467144534
-76.371134001263
-76.377590087969
-76.379480830392
-76.376468697750
-76.376798328044
-76.379155988357
-76.373296597178
-76.374394185463
-76.377628264578
-76.371665116925
-76.375924875338
-76.377677986149
-76.372668610302
-76.371102732115
-76.378298137667
-76.376454280612
-76.372819588034
-76.371566018003
-76.380558989240
-76.377580589283
-76.379365027151
-76.377750333835
-76.377852221132
-76.380708238820
-76.380483484294
-76.376378429805
-76.377517024647
-76.379623115317
-76.378088231438
-76.376795310225
-76.378812055842
-76.380281955881
-76.374465918942
-76.370063279972
-76.379151180888
-76.373020851281
-76.376014774536
-76.379524516419
-76.367510220601
-76.376926435575
-76.377180734655
-76.375490931863
-76.378941044667
-76.376863588394
-76.378462906835
-76.376060063299
-76.377690693276
-76.375601172441
-76.380136801510
-76.376928765868
-76.379070116506
-76.377618835879
-76.378232417345
-76.377824545883
-76.371191630243
-76.366341459163
-76.371355155570
-76.377928630660
-76.379921571177
-76.376978541445
-76.380112901335
-76.379059054028
-76.377000158133
-76.373880843509
-76.377369376488
-76.375805181705
-76.380629591721
-76.378969555002
-76.380468572507
-76.370010909493
-76.377802245550
-76.378393627110
-76.375993032390
-76.377828265261
-76.378401286967
-76.371350592761
-76.378527501500
-76.376622688232
-76.377538108895
-76.379677039746
-76.377800620089
-76.380070092761
-76.377635622526
-76.375206864634
-76.377158309180
-76.378485997976
-76.376467121146
-76.378318553830
-76.376902256983
-76.379454661708
-76.372269079290
-76.377316359055
-76.379356946138
-76.378529100935
-76.377399327951
-76.377604183226
-76.368939108260
-76.379954224029
-76.378924736241
-76.373880649654
-76.379298064024
-76.379474208108
-76.379596980002
-76.376806016467
-76.372343265339
-76.375616647369
-76.378669922285
-76.376969665890
-76.376266397681
-76.376427667931
-76.377654393683
-76.371953666084
-76.378301639518
-76.379498981393
-76.373328710664
-76.377916994607
-76.377914984785
-76.379320753518
-76.376915506096
-76.379001599635
-76.377163673749
-76.379941606161
-76.380325553956
-76.379948514541
-76.377786068941
-76.379638314909
-76.378676336319
-76.380329522169
-76.377378195918
-76.377327347612
-76.378202246419
-76.373828436409
-76.365888547514
-76.374638456234
-76.379043183255
-76.376769131869
-76.365319602548
-76.376663612332
-76.379156473496
-76.377715182182
-76.374058949441
-76.379936546930
-76.377257337656
-76.368918551961
-76.376723668453
-76.376706990850
-76.366162160807
-76.375692258342
-76.380114259020
-76.379440548931
-76.380409969013
-76.378650046274
-76.378325852621
-76.376305317843
-76.379582506052
-76.372826112424
-76.370947003547
-76.379256182417
-76.380225125788
-76.379556163009
-76.379047124880
-76.374695417045
-76.379391287679
-76.379941780880
-76.378859715098
-76.379039350230
-76.377263002089
-76.371832548629
-76.375901848129
-76.378703066319
-76.374567950815
-76.375009686112
-76.380187481807
-76.373932116166
-76.376436073784
-76.379806481757
-76.379564395896
-76.378062070657
-76.374960749433
-76.378548443111
-76.380454988581
-76.377799189869
-76.367771131161
-76.374095675672
-76.375748313966
-76.377428107089
-76.380373152108
-76.375002258182
-76.374801557811
-76.378116097717
-76.378452297453
-76.376508066964
-76.367103834926
-76.379067397766
-76.369765601635
-76.378199350027
-76.372304163187
-76.375090394637
-76.373232802852
-76.378328345753
-76.380347965304
-76.373237989742
-76.379962245160
-76.378159275626
-76.379889237979
-76.368878963575
-76.372879958436
-76.372994553434
-76.378242667773
-76.378524247442
-76.378657227084
-76.373522145688
-76.374315368095
-76.380085852189
-76.375195424149
-76.365670527277
-76.376302230587
-76.373540898872
-76.375972280174
-76.378673553053
-76.378716675633
-76.377580211384
-76.379750154083
-76.374225263530
-76.367057112613
-76.378770841979
-76.375842577431
-76.366780908204
-76.378957628005
-76.374495166677
-76.378387012029
-76.371315981577
-76.379564314810
-76.371348450579
-76.375400528350
-76.380039628108
-76.373663410793
-76.378369178976
-76.371000065049
-76.370544760855
-76.379736632874
-76.376610264865
-76.376110394171
-76.377268011185
-76.379464267374
-76.369809200987
-76.377646381960
-76.367748717057
-76.380295742666
-76.376630217453
-76.378619733561
-76.376083838278
-76.377258410592
-76.378616391824
-76.378269642542
-76.375264700801
-76.367117651278
-76.379780720186
-76.374588278070
-76.377384302365
-76.375466006902
-76.379434866584
-76.376674473544
-76.367785252093
-76.376789458554
-76.377421951890
-76.377413275800
-76.378243404732
-76.375302922234
-76.375000383492
-76.379651127842
-76.371341829738
-76.376649404675
-76.378891132636
-76.380286252634
-76.380673130396
-76.373237605721
-76.375764353127
-76.376142735375
-76.374872272166
-76.378614529783
-76.375297610755
-76.377820716868
-76.378976718450
-76.374441742081
-76.377289871991
-76.376305144215
-76.369050696495
-76.379385028949
-76.375246352171
-76.377793112082
-76.379293894350
-76.376410637840
-76.379145375568
-76.375102097859
-76.374906539897
-76.378941043512
-76.371670840735
-76.377631432794
-76.371724151862
-76.370564426033
-76.372903171304
-76.380234631114
-76.380202254534
-76.377289287139
-76.379279524875
-76.380474689427
-76.373992051075
-76.372006796120
-76.375992376211
-76.373772351336
-76.364348246367
-76.370311970801
-76.380128170215
-76.375453712574
-76.375651307948
-76.380036719217
-76.380640198441
-76.378072485031
-76.378341367121
-76.377980850237
-76.378451527255
-76.378204991951
-76.379261076745
-76.375071722910
-76.375550259271
-76.379424173086
-76.374296808161
-76.380071447668
-76.378227667837
-76.378082683559
-76.378467733366
-76.379787885940
-76.373956727456
-76.377880421713
-76.379655689558
-76.378689634159
-76.376163095576
-76.378736189677
-76.363526278765
-76.378368874375
-76.375266863606
-76.369006154258
-76.375748780050
-76.365636438596
-76.379317054974
-76.369904362296
-76.377013370267
-76.375595243457
-76.379178025506
-76.379227686725
-76.378326207390
-76.376095494775
-76.378987223161
-76.379950224343
-76.378339432196
-76.379663612650
-76.379726649109
-76.377860136826
-76.379277472752
-76.375574307195
-76.377498521761
-76.376959389007
-76.380072393008
-76.377079719353
-76.376731743718
-76.374571970202
-76.371298557084
-76.378440882046
-76.376660675575
-76.377176559822
-76.376046178938
-76.379073410159
-76.380526452456
-76.379177870805
-76.360636528288
-76.378385393196
-76.373870026905
-76.379807123487
-76.375686055265
-76.379418249963
-76.380287770325
-76.375096154739
-76.369724084514
-76.379315978152
-76.375874500526
-76.378941581669
-76.374680731413
-76.376021701112
-76.377624099846
-76.374964678345
-76.376710156084
-76.376099242152
-76.379754907826
-76.377623300337
-76.377517886597
-76.374696548059
-76.379314457851
-76.376880982277
-76.376432371089
-76.378641986988
-76.379759906084
-76.375424039784
-76.377729657983
-76.380593258264
-76.379917194270
-76.378720161627
-76.379421149819
-76.368438179102
-76.373309442354
-76.379163016621
-76.379380420112
-76.377279833964
-76.378184770179
-76.380277292617
-76.365762883043
-76.377107731257
-76.377819100316
-76.380221570534
-76.379718388570
-76.380020558400
-76.377797895472
-76.378694859473
-76.373497555626
-76.380236791121
-76.377376005002
-76.379149428513
-76.373410063990
-76.378722966152
-76.377469773949
-76.380236979023
-76.378892608143
-76.379363657334
-76.367352482810
-76.378056414458
-76.379627795872
-76.378035545405
-76.368132926770
-76.379902537582
-76.374760867203
-76.372257406735
-76.376093516902
-76.375838640804
-76.379761544070
-76.370341721420
-76.374380543155
-76.367922042872
-76.377572939036
-76.380452033551
-76.371956893026
-76.379511000456
-76.376813021188
-76.378500727141
-76.377603090513
-76.379426717363
-76.378578632866
-76.379939638710
-76.377463696516
-76.376497286973
-76.379485846763
-76.376214975642
-76.376179641522
-76.380170991243
-76.379113200973
-76.380010974302
-76.373157983421
-76.366949353116
-76.373021921570
-76.375108494899
-76.380142878923
-76.375751405812
-76.379224414267
-76.375620905115
-76.373781396315
-76.377941384241
-76.377580792494
-76.373659767028
-76.378560754051
-76.376625410930
-76.372189790745
-76.375047105480
-76.379186616292
-76.375681414477
-76.380174871268
-76.376901911267
-76.380281463598
-76.378317788513
-76.379242038504
-76.371395550382
-76.380465473128
-76.376904588794
-76.379088331627
-76.374586991664
-76.379292755946
-76.369550191381
-76.376972305645
-76.377417917971
-76.375407373159
-76.380720905100
-76.375364409149
-76.378074345260
-76.377831165118
-76.380563289374
-76.377113857772
-76.374074056539
-76.372183408224
-76.374021028454
-76.375018918056
-76.374908376512
-76.377744893153
-76.373470201163
-76.379863033045
-76.374947183793
-76.378453037669
-76.380196934829
-76.375067095652
-76.379871673672
-76.378700167440
-76.375474544357
-76.380624742457
-76.376809270920
-76.375648622112
-76.373269072896
-76.379379602754
-76.371845906900
-76.374173091646
-76.379238556320
-76.379690162163
-76.375499997501
-76.377538557425
-76.377930939450
-76.379228641350
-76.379313228581
-76.379744579606
-76.378360913013
-76.377680718489
-76.379822424505
-76.355734798595
-76.377452118043
-76.372774764248
-76.374630142940
-76.376684589700
-76.373956432717
-76.365530685147
-76.380347770415
-76.379011910047
-76.378895397660
-76.376514573299
-76.380564521468
-76.380316463943
-76.380013207834
-76.379532475063
-76.380079062711
-76.378096338756
-76.376441025437
-76.377105185970
-76.375094554167
-76.371190367787
-76.377993804115
-76.368634688660
-76.380188886335
-76.374164463497
-76.378128873593
-76.378715619259
-76.379861528868
-76.376437853665
-76.377867777609
-76.377181946135
-76.376768544246
-76.377485701250
-76.378413592855
-76.376368939583
-76.380609067596
-76.377804149866
-76.375955975544
-76.377599717012
-76.378621982831
-76.379422171593
-76.380301954770
-76.374958892268
-76.378342156127
-76.379820880614
-76.379774090841
-76.374268224335
-76.380170567951
-76.367497201170
-76.376342191853
-76.374865858424
-76.378207971389
-76.376680592967
-76.366293892681
-76.372389608483
-76.376637186279
-76.377832883638
-76.376605382923
-76.372466199023
-76.367934819119
-76.378485920210
-76.375063873118
-76.375291341944
-76.377558227225
-76.377420658127
-76.373441400020
-76.373518698957
-76.378986070009
-76.378730466004
-76.376401556910
-76.380303319524
-76.379689554548
-76.378068164257
-76.372682824714
-76.380300054971
-76.379664683823
-76.380569783219
-76.370301853211
-76.380081363509
-76.378570005956
-76.376112267399
-76.379758035989
-76.380031788502
-76.380215656884
-76.379594846447
-76.375097008117
-76.377842477442
-76.375577632599
-76.373309577541
-76.368959618975
-76.377868952213
-76.380018410175
-76.376400945277
-76.380267659352
-76.377874680699
-76.377824118772
-76.369703731061
-76.379194845706
-76.372804269155
-76.377228350975
-76.378338762264
-76.378912151046
-76.376687740989
-76.370585114209
-76.378377312284
-76.378841103549
-76.374491955533
-76.377505299394
