-76.378155887142
-76.378140856840
-76.379999070015
-76.379985292585
-76.372554877601
-76.380284172785
-76.374160814698
-76.375777368330
-76.375834040881
-76.355746253981
-76.377928243823
-76.372696601485
-76.371492953648
-76.379209878155
-76.379108875385
-76.378204999462
-76.376795637499
-76.379553925508
-76.378190426423
-76.373858753204
-76.380649932827
-76.370932039968
-76.378426226870
-76.380548842764
-76.380503311988
-76.378375557967
-76.376414408168
-76.378389501311
-76.379594142834
-76.366718574432
-76.379491672136
-76.377339462606
-76.378887859489
-76.373925043741
-76.375385284543
-76.377814965559
-76.374322878216
-76.380134392124
-76.375985388853
-76.380420085886
-76.373768978161
-76.376755716325
-76.378339783706
-76.375757175453
-76.377787155965
-76.377961155589
-76.379594836512
-76.367386944296
-76.380520054680
-76.379322313833
-76.377467027377
-76.378577052403
-76.376228127775
-76.380353881784
-76.380112150145
-76.379104839603
-76.363701397636
-76.373368569530
-76.376512311736
-76.379214422320
-76.367775366383
-76.379607146277
-76.378622309694
-76.379159287104
-76.379817847725
-76.378598583884
-76.377215266273
-76.375761824345
-76.377507802095
-76.377101183631
-76.379779098906
-76.374592003742
-76.375165774061
-76.366312572333
-76.375482948010
-76.374972606175
-76.380471528532
-76.378602815063
-76.371699531666
-76.379769822939
-76.370893394499
-76.375776472145
-76.376714041064
-76.378218879151
-76.378231131728
-76.371351849094
-76.378579522052
-76.377572164320
-76.374043256961
-76.379599797715
-76.376464856840
-76.379416264184
-76.369534377536
-76.380099250243
-76.379777406121
-76.379095146803
-76.380645250950
-76.377634708365
-76.379687428394
-76.370350445492
-76.379112292672
-76.378388693953
-76.380055337639
-76.373066789422
-76.377071112909
-76.377494267268
-76.380557677585
-76.379548621687
-76.379445314430
-76.378467765049
-76.370806092631
-76.375691964628
-76.378759916594
-76.374524322298
-76.380713032125
-76.375395482509
-76.380121318330
-76.377412426438
-76.373358711087
-76.380211622536
-76.377746659792
-76.380687328029
-76.380586867991
-76.373219023377
-76.367358728192
-76.376464517361
-76.369664522084
-76.367685802675
-76.370928310550
-76.379150769494
-76.373711033316
-76.379915999310
-76.376286636010
-76.373509000463
-76.377979977593
-76.376071400509
-76.376000695528
-76.379208078585
-76.376776987413
-76.378106508808
-76.379887530251
-76.375774828710
-76.373969075440
-76.380533162604
-76.378518350751
-76.371348521169
-76.375024405640
-76.377999389223
-76.373170523759
-76.376968190028
-76.374247061084
-76.380226924725
-76.378381706540
-76.379704275497
-76.380005413427
-76.380312756887
-76.375368240155
-76.378995278530
-76.380499590718
-76.379569012972
-76.378256640722
-76.375405717206
-76.370307774504
-76.365796707371
-76.379677985312
-76.375835152167
-76.379769946698
-76.379252406740
-76.369817102461
-76.376295135077
-76.370254184845
-76.379085934154
-76.379206894225
-76.372148374323
-76.360708546381
-76.380461234061
-76.378500081095
-76.379514485756
-76.380751344610
-76.378025689599
-76.373326766787
-76.373002340405
-76.377920960439
-76.375333938902
-76.380034942834
-76.375735091911
-76.373959842480
-76.379100654450
-76.379236396768
-76.380706572561
-76.377547729436
-76.380210937495
-76.372569407380
-76.373035864334
-76.378856680992
-76.375687782405
-76.372514634164
-76.379743345432
-76.374024813917
-76.379381189490
-76.374385257794
-76.379090486259
-76.374187446754
-76.380267982884
-76.380065128135
-76.376178195995
-76.369832851604
-76.376325678052
-76.367030314895
-76.378457478489
-76.380147100854
-76.376104080079
-76.373919375740
-76.379938784932
-76.376503575790
-76.373358681398
-76.377610885939
-76.379159247223
-76.379483468482
-76.379617611848
-76.375905673148
-76.371951539589
-76.377560520389
-76.378507772969
-76.378490599353
-76.379465135712
-76.376741272108
-76.374636809155
-76.377539752063
-76.375197290635
-76.373407249551
-76.379741497986
-76.380096409340
-76.379222369929
-76.370857817624
-76.372019452859
-76.378108852878
-76.380356444737
-76.370527397609
-76.378063388348
-76.379594166358
-76.372862662156
-76.377294252690
-76.380628522743
-76.378061884573
-76.379627261327
-76.380630700686
-76.378792997828
-76.370272262443
-76.379273963061
